LAMMPS (2 Aug 2023 - Update 3)
OMP_NUM_THREADS environment is not set. Defaulting to 1 thread. (src/comm.cpp:98)
  using 1 OpenMP thread(s) per MPI task
Loaded 1 plugins from C:\Users\nihal\AppData\Local\LAMMPS 64-bit 2Aug2023\plugins
# 1) Initialization
units lj
dimension 3
atom_style atomic
pair_style lj/cut 2.5
boundary p p p

# 2) System definition
read_data minimized_coordinate.data
Reading data file ...
  orthogonal box = (-20 -20 -20) to (20 20 20)
  1 by 1 by 1 MPI processor grid
  reading atoms ...
  1150 atoms
  reading velocities ...
  1150 velocities
  read_data CPU = 1.981 seconds
region region_cylinder_in cylinder z 0 0 10 INF INF side in
region region_cylinder_out cylinder z 0 0 10 INF INF side out
group group_type_1 type 1
1000 atoms in group group_type_1
group group_type_2 type 2
150 atoms in group group_type_2
group group_region_in region region_cylinder_in
149 atoms in group group_region_in
group group_region_out region region_cylinder_out
1001 atoms in group group_region_out
group group_type_1_in intersect group_type_1 group_region_in
0 atoms in group group_type_1_in
group group_type_2_out intersect group_type_2 group_region_out
1 atoms in group group_type_2_out
delete_atoms group group_type_1_in
Deleted 0 atoms, new total = 1150
delete_atoms group group_type_2_out
Deleted 1 atoms, new total = 1149

#3) Simulation Settings is read from the data file

# 4) Visualization
thermo 1000
dump mydmp all atom 1000 dump.md.lammpstrj


variable n_type1_in equal count(group_type_1,region_cylinder_in)
variable n_type2_in equal count(group_type_2,region_cylinder_in)
fix myat1 all ave/time 10 200 2000 v_n_type1_in     file output-population1vstime.dat
fix myat2 all ave/time 10 200 2000 v_n_type2_in     file output-population2vstime.dat

compute coor12 group_type_1 coord/atom cutoff 2.0 group group_type_2
compute sumcoor12 all reduce ave c_coor12
fix myat3 all ave/time 10 200 2000     c_sumcoor12 file coordinationnumber12.dat

compute pcf11 all rdf 100000 1 1
fix mypcf11 all ave/time 10 200 2000 c_pcf11[*] file pcf11.dat mode vector
compute pcf22 all rdf 100000 2 2
fix mypcf22 all ave/time 10 200 2000 c_pcf22[*] file pcf22.dat mode vector
compute pcf12 all rdf 100000 1 2
fix mypcf12 all ave/time 10 200 2000 c_pcf12[*] file pcf12.dat mode vector
compute pcf all rdf 100000
fix mypcf all ave/time 10 200 2000 c_pcf[*] file pcf.dat mode vector

compute peatom all pe/atom
compute keatom all ke/atom

# 5) Run
velocity all create 1.0 4928459 mom yes rot yes dist gaussian
fix mynve all nve
fix mylgv all langevin 1.0 1.0 0.1 1530917 zero yes
timestep 0.005



run 300000
Generated 1 of 1 mixed pair_coeff terms from geometric mixing rule
Neighbor list info ...
  update: every = 1 steps, delay = 0 steps, check = yes
  max neighbors/atom: 2000, page size: 100000
  master list distance cutoff = 2.8
  ghost atom cutoff = 2.8
  binsize = 1.4, bins = 29 29 29
  6 neighbor lists, perpetual/occasional/extra = 1 5 0
  (1) pair lj/cut, perpetual
      attributes: half, newton on
      pair build: half/bin/atomonly/newton
      stencil: half/bin/3d
      bin: standard
  (2) compute coord/atom, occasional
      attributes: full, newton on
      pair build: full/bin/atomonly
      stencil: full/bin/3d
      bin: standard
  (3) compute rdf, occasional, copy from (1)
      attributes: half, newton on
      pair build: copy
      stencil: none
      bin: none
  (4) compute rdf, occasional, copy from (1)
      attributes: half, newton on
      pair build: copy
      stencil: none
      bin: none
  (5) compute rdf, occasional, copy from (1)
      attributes: half, newton on
      pair build: copy
      stencil: none
      bin: none
  (6) compute rdf, occasional, copy from (1)
      attributes: half, newton on
      pair build: copy
      stencil: none
      bin: none
Per MPI rank memory allocation (min/avg/max) = 3.976 | 3.976 | 3.976 Mbytes
   Step          Temp          E_pair         E_mol          TotEng         Press     
         0   1             -0.13907746     0              1.3596171      0.015860171  
      1000   0.98377066    -0.11838515     0              1.3559865      0.018096041  
      2000   1.0247656     -0.10233039     0              1.4334801      0.019915687  
      3000   0.98126995    -0.13040664     0              1.3402173      0.01838125   
      4000   1.0090577     -0.16205484     0              1.3502145      0.017596744  
      5000   1.0375666     -0.15061021     0              1.4043851      0.020623886  
      6000   1.0397648     -0.14254562     0              1.4157441      0.019084484  
      7000   1.0257214     -0.14195045     0              1.3952926      0.019917878  
      8000   0.98788966    -0.14878603     0              1.3317588      0.017492284  
      9000   0.9593059     -0.18170938     0              1.2559971      0.016126383  
     10000   0.97839933    -0.15876781     0              1.3075539      0.017162528  
     11000   0.97559158    -0.17248175     0              1.289632       0.01564812   
     12000   0.99622607    -0.15783667     0              1.3352019      0.01814298   
     13000   1.029578      -0.16289947     0              1.3801234      0.018094439  
     14000   0.99509392    -0.17612561     0              1.3152162      0.016896332  
     15000   0.99232872    -0.16933081     0              1.3178668      0.016880255  
     16000   0.94382059    -0.15721812     0              1.2572806      0.017048892  
     17000   0.96485422    -0.15042775     0              1.295594       0.017652607  
     18000   0.96152583    -0.15157434     0              1.2894591      0.016259701  
     19000   1.0556039     -0.16403876     0              1.4179891      0.018249395  
     20000   1.0080629     -0.16227455     0              1.3485037      0.018093015  
     21000   0.97649965    -0.15156569     0              1.311909       0.015772518  
     22000   0.97212238    -0.1633969      0              1.2935176      0.015894515  
     23000   1.0260647     -0.16551534     0              1.3722422      0.017864989  
     24000   1.0258792     -0.17122762     0              1.3662519      0.018371284  
     25000   0.99232294    -0.17996176     0              1.3072272      0.016887916  
     26000   1.030399      -0.15345812     0              1.3907952      0.019107056  
     27000   1.0366413     -0.16638115     0              1.3872276      0.017758361  
     28000   0.985992      -0.16483349     0              1.3128673      0.017285456  
     29000   0.95674227    -0.17055828     0              1.2633061      0.017092789  
     30000   0.9918697     -0.16080544     0              1.3257042      0.017056772  
     31000   1.0193885     -0.17034562     0              1.3574063      0.016494272  
     32000   0.96863551    -0.14961953     0              1.3020692      0.018129513  
     33000   1.005835      -0.16247684     0              1.3449625      0.016598584  
     34000   0.96776669    -0.16057678     0              1.2898098      0.018255696  
     35000   0.9807579     -0.16382022     0              1.3060363      0.016696942  
     36000   0.96814137    -0.16004816     0              1.2909         0.016947851  
     37000   1.0285909     -0.16416986     0              1.3773736      0.017882876  
     38000   0.9259138     -0.16030689     0              1.2273551      0.016029951  
     39000   1.0084318     -0.17666582     0              1.3346653      0.017763567  
     40000   0.9828566     -0.15878209     0              1.3142197      0.017445462  
     41000   0.99452552    -0.18207005     0              1.3084199      0.017105854  
     42000   1.0158272     -0.13694006     0              1.3854746      0.018900319  
     43000   0.99836618    -0.17083812     0              1.3254078      0.0172824    
     44000   0.98617139    -0.17404851     0              1.3039211      0.017637089  
     45000   1.0243593     -0.16081152     0              1.3743902      0.018732891  
     46000   1.0229481     -0.17011428     0              1.3629724      0.017261984  
     47000   1.0053942     -0.15778975     0              1.3489891      0.018906368  
     48000   1.0089256     -0.17512951     0              1.3369418      0.017437952  
     49000   1.0291833     -0.17719306     0              1.3652383      0.017428173  
     50000   1.0301977     -0.18162205     0              1.3623296      0.016983191  
     51000   0.9856617     -0.17870439     0              1.2985014      0.016888836  
     52000   0.99778465    -0.18088269     0              1.3144917      0.019066866  
     53000   1.0281457     -0.16651445     0              1.3743619      0.018710648  
     54000   0.96278234    -0.16729034     0              1.2756263      0.016427431  
     55000   0.97401585    -0.17228013     0              1.2874721      0.018026822  
     56000   0.99005568    -0.19139478     0              1.2923962      0.016562655  
     57000   0.98051139    -0.17035161     0              1.2991354      0.016423428  
     58000   0.99872753    -0.17341027     0              1.3233772      0.017763171  
     59000   0.99406195    -0.1637316      0              1.3260636      0.017932455  
     60000   1.0015216     -0.16100814     0              1.3399667      0.017266392  
     61000   1.0280868     -0.17406567     0              1.3667225      0.018071949  
     62000   1.0017325     -0.17050773     0              1.3307832      0.018327097  
     63000   1.0099019     -0.17227046     0              1.3412639      0.018065296  
     64000   1.0140924     -0.16628714     0              1.3535277      0.019076312  
     65000   1.0126109     -0.19393358     0              1.3236608      0.017275909  
     66000   0.97795422    -0.17291142     0              1.2927432      0.017260097  
     67000   0.94067208    -0.17228228     0              1.2374978      0.015927446  
     68000   1.0281157     -0.18504842     0              1.3557829      0.01851775   
     69000   1.0087475     -0.17547276     0              1.3363316      0.017020272  
     70000   1.0238275     -0.18393332     0              1.3504713      0.018895042  
     71000   0.98500919    -0.17305553     0              1.3031723      0.017579914  
     72000   1.0107789     -0.15722705     0              1.3576217      0.018722187  
     73000   1.0040851     -0.17210561     0              1.3327112      0.016382539  
     74000   0.99997541    -0.1729143      0              1.3257434      0.016717525  
     75000   0.96822792    -0.17490632     0              1.2761716      0.016110366  
     76000   0.98893633    -0.15939228     0              1.3227212      0.017705842  
     77000   1.0035104     -0.17802885     0              1.3259267      0.016835837  
     78000   0.95762368    -0.18057533     0              1.25461        0.015919768  
     79000   0.99303438    -0.14189585     0              1.3463593      0.017935751  
     80000   0.97386161    -0.16585627     0              1.2936648      0.01674885   
     81000   1.0003503     -0.14996898     0              1.3492505      0.017815539  
     82000   0.95822516    -0.16978776     0              1.266299       0.016102452  
     83000   0.98283754    -0.15601299     0              1.3169602      0.018424973  
     84000   1.0105064     -0.16488992     0              1.3495504      0.017974003  
     85000   0.98983233    -0.16130564     0              1.3221506      0.017758878  
     86000   0.97921975    -0.1669104      0              1.3006409      0.017733768  
     87000   1.0135289     -0.18004312     0              1.3389271      0.01730891   
     88000   0.98699031    -0.17929693     0              1.2999         0.01720943   
     89000   0.98351193    -0.17929256     0              1.2946914      0.016826119  
     90000   1.0206553     -0.15644913     0              1.3732014      0.017721764  
     91000   0.95407801    -0.14928725     0              1.2805842      0.017589218  
     92000   1.0177802     -0.17306724     0              1.3522743      0.018143835  
     93000   1.0347917     -0.15897441     0              1.3918623      0.019197197  
     94000   0.9824468     -0.15912087     0              1.3132668      0.017261675  
     95000   0.98096283    -0.16137204     0              1.3087916      0.015968036  
     96000   0.98564487    -0.15038609     0              1.3267945      0.017882769  
     97000   1.0201349     -0.17032426     0              1.3585463      0.017010067  
     98000   1.0060506     -0.17932565     0              1.3284369      0.017298504  
     99000   1.0137797     -0.16142395     0              1.3579222      0.017712011  
    100000   1.0125377     -0.15867156     0              1.3588132      0.018164513  
    101000   1.0218442     -0.16109991     0              1.3703323      0.017138092  
    102000   0.98283244    -0.15612374     0              1.3168419      0.017387005  
    103000   1.0057214     -0.15964419     0              1.347625       0.018616252  
    104000   0.98405855    -0.17523233     0              1.2995708      0.016852499  
    105000   1.040978      -0.16671806     0              1.39339        0.018332467  
    106000   1.0053984     -0.16179721     0              1.3449879      0.016629948  
    107000   0.98726217    -0.15050395     0              1.3291004      0.016677063  
    108000   0.97904519    -0.17159107     0              1.2956986      0.016992753  
    109000   1.0053607     -0.18000543     0              1.3267232      0.017078714  
    110000   1.0008978     -0.17602647     0              1.3240136      0.017370775  
    111000   1.0438948     -0.16216099     0              1.4023184      0.018106934  
    112000   0.95964657    -0.16129381     0              1.2769232      0.017157419  
    113000   1.0232054     -0.18562792     0              1.3478443      0.017281407  
    114000   1.0374543     -0.17208742     0              1.3827397      0.018670248  
    115000   1.0260233     -0.17918199     0              1.3585136      0.016640121  
    116000   0.98067619    -0.1906441      0              1.2790899      0.016656799  
    117000   0.99287912    -0.1715637      0              1.3164588      0.017438454  
    118000   1.0115751     -0.18428221     0              1.3317599      0.016891564  
    119000   0.99167934    -0.16809567     0              1.3181287      0.017001217  
    120000   0.98969345    -0.17428037     0              1.3089678      0.016798182  
    121000   0.98141845    -0.16693305     0              1.3039134      0.018306105  
    122000   1.0081939     -0.16548967     0              1.345485       0.016387181  
    123000   1.0145305     -0.17758758     0              1.3428838      0.017933046  
    124000   0.9538259     -0.16810111     0              1.2613925      0.01591692   
    125000   0.99427344    -0.16153404     0              1.3285781      0.016360002  
    126000   1.0166709     -0.15847522     0              1.3652039      0.017249672  
    127000   0.96522747    -0.15756161     0              1.2890195      0.016857332  
    128000   1.0155864     -0.16567118     0              1.3563826      0.017384533  
    129000   1.033544      -0.18001679     0              1.36895        0.017709164  
    130000   1.0452902     -0.15689045     0              1.4096803      0.017867632  
    131000   1.013983      -0.16379874     0              1.3558519      0.018229793  
    132000   0.98595512    -0.16229924     0              1.3153463      0.017457717  
    133000   1.027917      -0.16405252     0              1.376481       0.018660039  
    134000   0.97530371    -0.17122549     0              1.2904568      0.017532659  
    135000   0.97452238    -0.19925078     0              1.2612606      0.015860408  
    136000   0.98532441    -0.1816969      0              1.2950034      0.016552007  
    137000   0.98931952    -0.18843648     0              1.2942513      0.016198303  
    138000   0.97562252    -0.19353754     0              1.2686226      0.016688582  
    139000   0.99093837    -0.18304898     0              1.3020649      0.016033694  
    140000   0.96679953    -0.19028511     0              1.2586521      0.01597142   
    141000   0.97186851    -0.167021       0              1.289513       0.016925758  
    142000   1.0383529     -0.17045905     0              1.3857147      0.018676232  